 Entering Gaussian System, Link 0=g09
 Input=mo.com
 Output=mo.log
 Initial command:
 /opt/Gaussian/g09/l1.exe "/usr/local/g09tmp/Gau-13782.inp" -scrdir="/usr/local/g09tmp/"
 Entering Link 1 = /opt/Gaussian/g09/l1.exe PID=     13783.

 Copyright (c) 1988,1990,1992,1993,1995,1998,2003,2009,2015,
            Gaussian, Inc.  All Rights Reserved.

 This is part of the Gaussian(R) 09 program.  It is based on
 the Gaussian(R) 03 system (copyright 2003, Gaussian, Inc.),
 the Gaussian(R) 98 system (copyright 1998, Gaussian, Inc.),
 the Gaussian(R) 94 system (copyright 1995, Gaussian, Inc.),
 the Gaussian 92(TM) system (copyright 1992, Gaussian, Inc.),
 the Gaussian 90(TM) system (copyright 1990, Gaussian, Inc.),
 the Gaussian 88(TM) system (copyright 1988, Gaussian, Inc.),
 the Gaussian 86(TM) system (copyright 1986, Carnegie Mellon
 University), and the Gaussian 82(TM) system (copyright 1983,
 Carnegie Mellon University). Gaussian is a federally registered
 trademark of Gaussian, Inc.

 This software contains proprietary and confidential information,
 including trade secrets, belonging to Gaussian, Inc.

 This software is provided under written license and may be
 used, copied, transmitted, or stored only in accord with that
 written license.

 The following legend is applicable only to US Government
 contracts under FAR:

                    RESTRICTED RIGHTS LEGEND

 Use, reproduction and disclosure by the US Government is
 subject to restrictions as set forth in subparagraphs (a)
 and (c) of the Commercial Computer Software - Restricted
 Rights clause in FAR 52.227-19.

 Gaussian, Inc.
 340 Quinnipiac St., Bldg. 40, Wallingford CT 06492


 ---------------------------------------------------------------
 Warning -- This program may not be used in any manner that
 competes with the business of Gaussian, Inc. or will provide
 assistance to any competitor of Gaussian, Inc.  The licensee
 of this program is prohibited from giving any competitor of
 Gaussian, Inc. access to this program.  By using this program,
 the user acknowledges that Gaussian, Inc. is engaged in the
 business of creating and licensing software in the field of
 computational chemistry and represents and warrants to the
 licensee that it is not a competitor of Gaussian, Inc. and that
 it will not use this program in any manner prohibited above.
 ---------------------------------------------------------------


 Cite this work as:
 Gaussian 03, Revision E.01,
 M. J. Frisch, G. W. Trucks, H. B. Schlegel, G. E. Scuseria,
 M. A. Robb, J. R. Cheeseman, G. Scalmani, V. Barone, B. Mennucci,
 G. A. Petersson, H. Nakatsuji, M. Caricato, X. Li, H. P. Hratchian,
 A. F. Izmaylov, J. Bloino, G. Zheng, J. L. Sonnenberg, M. Hada,
 M. Ehara, K. Toyota, R. Fukuda, J. Hasegawa, M. Ishida, T. Nakajima,
 Y. Honda, O. Kitao, H. Nakai, T. Vreven, J. A. Montgomery, Jr.,
 J. E. Peralta, F. Ogliaro, M. Bearpark, J. J. Heyd, E. Brothers,
 K. N. Kudin, V. N. Staroverov, T. Keith, R. Kobayashi, J. Normand,
 K. Raghavachari, A. Rendell, J. C. Burant, S. S. Iyengar, J. Tomasi,
 M. Cossi, N. Rega, J. M. Millam, M. Klene, J. E. Knox, J. B. Cross,
 V. Bakken, C. Adamo, J. Jaramillo, R. Gomperts, R. E. Stratmann,
 O. Yazyev, A. J. Austin, R. Cammi, C. Pomelli, J. W. Ochterski,
 R. L. Martin, K. Morokuma, V. G. Zakrzewski, G. A. Voth,
 P. Salvador, J. J. Dannenberg, S. Dapprich, A. D. Daniels,
 O. Farkas, J. B. Foresman, J. V. Ortiz, J. Cioslowski,
 and D. J. Fox, Gaussian, Inc., Wallingford CT, 2013.

 ******************************************
 Gaussian 03:  ES64L-G09RevE.01 30-Nov-2015
                22-Dec-2016
 ******************************************
 %nproc=8
 Will use up to    8 processors via shared memory.
 %mem=16GB
 ---------------------------------------------
 # tpssh/6-31G* symm=loos gfoldprint pop(full)
 ---------------------------------------------
 1/38=1/1;
 2/12=2,17=4,18=3,40=1/2;
 3/5=1,6=6,7=1,11=2,16=1,24=1,25=1,30=1,74=-35/1,2,3;
 4//1;
 5/5=2,38=5/2;
 6/7=3,28=1/1;
 99/5=1,9=1/99;
 -----
 Auh2f
 -----
 Symbolic Z-matrix:
 Charge =  0 Multiplicity = 1
 Mg                    0.        0.        0.00001
 H                     0.        0.       -1.71827
 H                     0.        0.        1.71818

                          Input orientation:
 ---------------------------------------------------------------------
 Center     Atomic      Atomic             Coordinates (Angstroms)
 Number     Number       Type             X           Y           Z
 ---------------------------------------------------------------------
      1         12           0        0.000000    0.000000    0.000007
      2          1           0        0.000000    0.000000   -1.718267
      3          1           0        0.000000    0.000000    1.718183
 ---------------------------------------------------------------------
                    Distance matrix (angstroms):
                    1          2          3
     1  Mg   0.000000
     2  H    1.718274   0.000000
     3  H    1.718176   3.436450   0.000000
 Stoichiometry    H2Mg
 Framework group  D*H[O(Mg),C*(H.H)]
 Deg. of freedom     1
 Full point group                 D*H     NOp   8
 Largest Abelian subgroup         D2H     NOp   8
 Largest concise Abelian subgroup C2      NOp   2
                         Standard orientation:
 ---------------------------------------------------------------------
 Center     Atomic      Atomic             Coordinates (Angstroms)
 Number     Number       Type             X           Y           Z
 ---------------------------------------------------------------------
      1         12           0       -0.000000   -0.000000    0.000000
      2          1           0        0.000000    0.000000    1.718267
      3          1           0        0.000000    0.000000   -1.718267
 ---------------------------------------------------------------------
 Rotational constants (GHZ):      0.0000000     84.9221065     84.9221065
 Standard basis: 6-31G(d) (6D, 7F)
 ***********************************************************************************************************************************
 *             ATOMIC CENTER             *        ATOMIC ORBITAL       *                     GAUSSIAN FUNCTIONS                    *
 ***********************************************************************************************************************************
 *                                       * FUNCTION    SHELL    SCALE  *                                                           *
 *    ATOM   X-COORD  Y-COORD  Z-COORD   *  NUMBER     TYPE     FACTOR *  EXPONENT    S-COEF      P-COEF      D-COEF      F-COEF   *
 ***********************************************************************************************************************************
 *     Mg    -0.00000 -0.00000  0.00000                                                                                            *
+                                                1   S           1.00
+                                                                      0.117228D+050.158808D+010.000000D+000.000000D+000.000000D+00
 *                                                                     0.175993D+040.292692D+010.000000D+000.000000D+000.000000D+00*
 *                                                                     0.400846D+030.471901D+010.000000D+000.000000D+000.000000D+00*
 *                                                                     0.112807D+030.614744D+010.000000D+000.000000D+000.000000D+00*
 *                                                                     0.359997D+020.511081D+010.000000D+000.000000D+000.000000D+00*
 *                                                                     0.121828D+020.148563D+010.000000D+000.000000D+000.000000D+00*
 *                                           2-  5   SP          1.00                                                              *
+                                                                      0.189180D+03-.117688D+000.492852D+010.000000D+000.000000D+00
 *                                                                     0.452119D+02-.509586D+000.584703D+010.000000D+000.000000D+00*
 *                                                                     0.143563D+02-.591876D+000.560550D+010.000000D+000.000000D+00*
 *                                                                     0.513886D+010.361556D+000.367963D+010.000000D+000.000000D+00*
 *                                                                     0.190652D+010.712889D+000.142083D+010.000000D+000.000000D+00*
 *                                                                     0.705887D+000.200240D+000.248325D+000.000000D+000.000000D+00*
 *                                           6-  9   SP          1.00                                                              *
+                                                                      0.929340D+00-.143210D+00-.291594D-010.000000D+000.000000D+00
 *                                                                     0.269035D+00-.287496D-010.531024D-010.000000D+000.000000D+00*
 *                                                                     0.117379D+000.168056D+000.828688D-010.000000D+000.000000D+00*
 *                                          10- 13   SP          1.00                                                              *
+                                                                      0.421061D-010.662474D-010.271876D-010.000000D+000.000000D+00
 *                                          14- 19   D           1.00                                                              *
+                                                                      0.175000D+000.000000D+000.000000D+000.779338D-010.000000D+00
 *---------------------------------------------------------------------------------------------------------------------------------*
 *     H      0.00000  0.00000  3.24705                                                                                            *
+                                               20   S           1.00
+                                                                      0.187311D+020.214935D+000.000000D+000.000000D+000.000000D+00
 *                                                                     0.282539D+010.364571D+000.000000D+000.000000D+000.000000D+00*
 *                                                                     0.640122D+000.415051D+000.000000D+000.000000D+000.000000D+00*
 *                                              21   S           1.00                                                              *
+                                                                      0.161278D+000.181381D+000.000000D+000.000000D+000.000000D+00
 *---------------------------------------------------------------------------------------------------------------------------------*
 *     H      0.00000  0.00000 -3.24705                                                                                            *
+                                               22   S           1.00
+                                                                      0.187311D+020.214935D+000.000000D+000.000000D+000.000000D+00
 *                                                                     0.282539D+010.364571D+000.000000D+000.000000D+000.000000D+00*
 *                                                                     0.640122D+000.415051D+000.000000D+000.000000D+000.000000D+00*
 *                                              23   S           1.00                                                              *
+                                                                      0.161278D+000.181381D+000.000000D+000.000000D+000.000000D+00
 ***********************************************************************************************************************************
 There are     9 symmetry adapted cartesian basis functions of AG  symmetry.
 There are     1 symmetry adapted cartesian basis functions of B1G symmetry.
 There are     1 symmetry adapted cartesian basis functions of B2G symmetry.
 There are     1 symmetry adapted cartesian basis functions of B3G symmetry.
 There are     0 symmetry adapted cartesian basis functions of AU  symmetry.
 There are     5 symmetry adapted cartesian basis functions of B1U symmetry.
 There are     3 symmetry adapted cartesian basis functions of B2U symmetry.
 There are     3 symmetry adapted cartesian basis functions of B3U symmetry.
 There are     9 symmetry adapted basis functions of AG  symmetry.
 There are     1 symmetry adapted basis functions of B1G symmetry.
 There are     1 symmetry adapted basis functions of B2G symmetry.
 There are     1 symmetry adapted basis functions of B3G symmetry.
 There are     0 symmetry adapted basis functions of AU  symmetry.
 There are     5 symmetry adapted basis functions of B1U symmetry.
 There are     3 symmetry adapted basis functions of B2U symmetry.
 There are     3 symmetry adapted basis functions of B3U symmetry.
    23 basis functions,    60 primitive gaussians,    23 cartesian basis functions
     7 alpha electrons        7 beta electrons
       nuclear repulsion energy         7.5453009401 Hartrees.
 NAtoms=    3 NActive=    3 NUniq=    2 SFac= 2.25D+00 NAtFMM=   60 NAOKFM=F Big=F
 Integral buffers will be    131072 words long.
 Raffenetti 2 integral format.
 Two-electron integral symmetry is turned on.
 One-electron integrals computed using PRISM.
 NBasis=    23 RedAO= T EigKep=  1.00D-01  NBF=     9     1     1     1     0     5     3     3
 NBsUse=    23 1.00D-06 EigRej= -1.00D+00 NBFU=     9     1     1     1     0     5     3     3
 ExpMin= 4.21D-02 ExpMax= 1.17D+04 ExpMxC= 1.76D+03 IAcc=2 IRadAn=         4 AccDes= 0.00D+00
 Harris functional with IExCor= 1009 and IRadAn=       4 diagonalized for initial guess.
 HarFok:  IExCor= 1009 AccDes= 0.00D+00 IRadAn=         4 IDoV= 1 UseB2=F ITyADJ=14
 ICtDFT=  3500011 ScaDFX=  1.000000  1.000000  1.000000  1.000000
 FoFCou: FMM=F IPFlag=           0 FMFlag=      100000 FMFlg1=           0
         NFxFlg=           0 DoJE=T BraDBF=F KetDBF=T FulRan=T
         wScrn=  0.000000 ICntrl=     500 IOpCl=  0 I1Cent=   200000004 NGrid=           0
         NMat0=    1 NMatS0=      1 NMatT0=    0 NMatD0=    1 NMtDS0=    0 NMtDT0=    0
 Petite list used in FoFCou.
 Initial guess orbital symmetries:
       Occupied  (SGG) (SGG) (SGU) (PIU) (PIU) (SGG) (SGU)
       Virtual   (PIU) (PIU) (SGG) (SGU) (SGG) (PIU) (PIU) (PIG)
                 (PIG) (SGU) (DLTG) (DLTG) (SGG) (SGG) (SGU) (SGG)
 The electronic state of the initial guess is 1-SGG.
 Keep R1 ints in memory in symmetry-blocked form, NReq=921796.
 Requested convergence on RMS density matrix=1.00D-08 within 128 cycles.
 Requested convergence on MAX density matrix=1.00D-06.
 Requested convergence on             energy=1.00D-06.
 No special actions if energy rises.
 SCF Done:  E(RTPSSh) =  -201.236979830     A.U. after    8 cycles
            NFock=  8  Conv=0.61D-09     -V/T= 2.0039

 **********************************************************************

            Population analysis using the SCF density.

 **********************************************************************

 Orbital symmetries:
       Occupied  (SGG) (SGG) (PIU) (PIU) (SGU) (SGG) (SGU)
       Virtual   (PIU) (PIU) (SGG) (SGU) (SGG) (PIU) (PIU) (PIG)
                 (PIG) (SGU) (DLTG) (DLTG) (SGG) (SGG) (SGU) (SGG)
 The electronic state is 1-SGG.
 Alpha  occ. eigenvalues --  -46.70543  -3.06539  -1.80469  -1.80469  -1.79494
 Alpha  occ. eigenvalues --   -0.29144  -0.24671
 Alpha virt. eigenvalues --   -0.02849  -0.02849   0.00123   0.09254   0.10943
 Alpha virt. eigenvalues --    0.17148   0.17148   0.25448   0.25448   0.28540
 Alpha virt. eigenvalues --    0.29637   0.29638   0.46823   0.81444   1.06485
 Alpha virt. eigenvalues --    1.10751
     Molecular Orbital Coefficients
                           1         2         3         4         5
                       (SGG)--O  (SGG)--O  (PIU)--O  (PIU)--O  (SGU)--O
     EIGENVALUES --   -46.70543  -3.06539  -1.80469  -1.80469  -1.79494
   1 1   Mg 1S          0.99737  -0.25378   0.00000   0.00000   0.00000
   2        2S          0.01097   1.02478   0.00000   0.00000   0.00000
   3        2PX         0.00000   0.00000   0.99295   0.00000   0.00000
   4        2PY         0.00000   0.00000   0.00000   0.99295   0.00000
   5        2PZ         0.00000   0.00000   0.00000   0.00000   0.99199
   6        3S         -0.01097   0.03285   0.00000   0.00000   0.00000
   7        3PX         0.00000   0.00000   0.03298   0.00000   0.00000
   8        3PY         0.00000   0.00000   0.00000   0.03298   0.00000
   9        3PZ         0.00000   0.00000   0.00000   0.00000   0.04009
  10        4S         -0.00076  -0.00186   0.00000   0.00000   0.00000
  11        4PX         0.00000   0.00000  -0.01072   0.00000   0.00000
  12        4PY         0.00000   0.00000   0.00000  -0.01072   0.00000
  13        4PZ         0.00000   0.00000   0.00000   0.00000  -0.00713
  14        5XX         0.00458  -0.00887   0.00000   0.00000   0.00000
  15        5YY         0.00458  -0.00887   0.00000   0.00000   0.00000
  16        5ZZ         0.00511  -0.00943   0.00000   0.00000   0.00000
  17        5XY         0.00000   0.00000   0.00000   0.00000   0.00000
  18        5XZ         0.00000   0.00000   0.00000   0.00000   0.00000
  19        5YZ         0.00000   0.00000   0.00000   0.00000   0.00000
  20 2   H  1S         -0.00004   0.00084   0.00000   0.00000   0.00482
  21        2S         -0.00040   0.00008   0.00000   0.00000  -0.00755
                           6         7         8         9        10
                       (SGG)--O  (SGU)--O  (PIU)--V  (PIU)--V  (SGG)--V
     EIGENVALUES --    -0.29144  -0.24671  -0.02849  -0.02849   0.00123
   1 1   Mg 1S          0.03991   0.00000   0.00000   0.00000   0.02447
   2        2S         -0.20574   0.00000   0.00000   0.00000  -0.13855
   3        2PX         0.00000   0.00000  -0.14608   0.00000   0.00000
   4        2PY         0.00000   0.00000   0.00000  -0.14608   0.00000
   5        2PZ         0.00000  -0.15817   0.00000   0.00000   0.00000
   6        3S          0.43148   0.00000   0.00000   0.00000   0.25609
   7        3PX         0.00000   0.00000   0.36834   0.00000   0.00000
   8        3PY         0.00000   0.00000   0.00000   0.36834   0.00000
   9        3PZ         0.00000   0.31215   0.00000   0.00000   0.00000
  10        4S          0.18981   0.00000   0.00000   0.00000   1.01095
  11        4PX         0.00000   0.00000   0.71818   0.00000   0.00000
  12        4PY         0.00000   0.00000   0.00000   0.71818   0.00000
  13        4PZ         0.00000   0.09925   0.00000   0.00000   0.00000
  14        5XX        -0.06253   0.00000   0.00000   0.00000   0.05521
  15        5YY        -0.06253   0.00000   0.00000   0.00000   0.05521
  16        5ZZ         0.09599   0.00000   0.00000   0.00000  -0.06461
  17        5XY         0.00000   0.00000   0.00000   0.00000   0.00000
  18        5XZ         0.00000   0.00000   0.00000   0.00000   0.00000
  19        5YZ         0.00000   0.00000   0.00000   0.00000   0.00000
  20 2   H  1S          0.19275   0.23234   0.00000   0.00000  -0.15870
  21        2S          0.20822   0.29478   0.00000   0.00000  -0.63470
                          11        12        13        14        15
                       (SGU)--V  (SGG)--V  (PIU)--V  (PIU)--V  (PIG)--V
     EIGENVALUES --     0.09254   0.10943   0.17148   0.17148   0.25448
   1 1   Mg 1S          0.00000   0.04626   0.00000   0.00000   0.00000
   2        2S          0.00000  -0.01563   0.00000   0.00000   0.00000
   3        2PX         0.00000   0.00000  -0.25198   0.00000   0.00000
   4        2PY         0.00000   0.00000   0.00000  -0.25198   0.00000
   5        2PZ         0.08574   0.00000   0.00000   0.00000   0.00000
   6        3S          0.00000   1.77579   0.00000   0.00000   0.00000
   7        3PX         0.00000   0.00000   1.37712   0.00000   0.00000
   8        3PY         0.00000   0.00000   0.00000   1.37712   0.00000
   9        3PZ        -0.41508   0.00000   0.00000   0.00000   0.00000
  10        4S          0.00000  -1.76825   0.00000   0.00000   0.00000
  11        4PX         0.00000   0.00000  -1.19280   0.00000   0.00000
  12        4PY         0.00000   0.00000   0.00000  -1.19280   0.00000
  13        4PZ         1.52718   0.00000   0.00000   0.00000   0.00000
  14        5XX         0.00000   0.09942   0.00000   0.00000   0.00000
  15        5YY         0.00000   0.09942   0.00000   0.00000   0.00000
  16        5ZZ         0.00000   0.05494   0.00000   0.00000   0.00000
  17        5XY         0.00000   0.00000   0.00000   0.00000   0.00000
  18        5XZ         0.00000   0.00000   0.00000   0.00000   0.00000
  19        5YZ         0.00000   0.00000   0.00000   0.00000   1.00000
  20 2   H  1S         -0.08903  -0.02758   0.00000   0.00000   0.00000
  21        2S         -0.50166  -0.13598   0.00000   0.00000   0.00000
                          16        17        18        19        20
                       (PIG)--V  (SGU)--V  (DLTG)--  (DLTG)--  (SGG)--V
     EIGENVALUES --     0.25448   0.28540   0.29637   0.29638   0.46823
   1 1   Mg 1S          0.00000   0.00000   0.00000   0.00000   0.00600
   2        2S          0.00000   0.00000   0.00000  -0.00000   0.04252
   3        2PX         0.00000   0.00000   0.00000   0.00000   0.00000
   4        2PY         0.00000   0.00000   0.00000   0.00000   0.00000
   5        2PZ         0.00000  -0.25801   0.00000   0.00000   0.00000
   6        3S          0.00000   0.00000   0.00000   0.00000   0.49183
   7        3PX         0.00000   0.00000   0.00000   0.00000   0.00000
   8        3PY         0.00000   0.00000   0.00000   0.00000   0.00000
   9        3PZ         0.00000   1.96220   0.00000   0.00000   0.00000
  10        4S          0.00000   0.00000   0.00000   0.00000   1.00457
  11        4PX         0.00000   0.00000   0.00000   0.00000   0.00000
  12        4PY         0.00000   0.00000   0.00000   0.00000   0.00000
  13        4PZ         0.00000   0.14183   0.00000   0.00000   0.00000
  14        5XX         0.00000   0.00000   0.00000   0.86603  -0.72675
  15        5YY         0.00000   0.00000   0.00000  -0.86603  -0.72675
  16        5ZZ         0.00000   0.00000   0.00000   0.00000   1.77581
  17        5XY         0.00000   0.00000   1.00000   0.00000   0.00000
  18        5XZ         1.00000   0.00000   0.00000   0.00000   0.00000
  19        5YZ         0.00000   0.00000   0.00000   0.00000   0.00000
  20 2   H  1S          0.00000  -0.09114   0.00000   0.00000   0.16662
  21        2S          0.00000  -1.28332   0.00000  -0.00000  -1.72766
                          21        22        23
                       (SGG)--V  (SGU)--V  (SGG)--V
     EIGENVALUES --     0.81444   1.06485   1.10751
   1 1   Mg 1S          0.10009   0.00000  -0.02284
   2        2S         -0.51864   0.00000   0.10744
   3        2PX         0.00000   0.00000   0.00000
   4        2PY         0.00000   0.00000   0.00000
   5        2PZ         0.00000  -0.05986   0.00000
   6        3S          3.40550   0.00000  -1.17714
   7        3PX         0.00000   0.00000   0.00000
   8        3PY         0.00000   0.00000   0.00000
   9        3PZ         0.00000  -0.38714   0.00000
  10        4S          0.57219   0.00000  -0.45065
  11        4PX         0.00000   0.00000   0.00000
  12        4PY         0.00000   0.00000   0.00000
  13        4PZ         0.00000  -0.76544   0.00000
  14        5XX        -1.87367   0.00000   0.37975
  15        5YY        -1.87367   0.00000   0.37975
  16        5ZZ        -1.95587   0.00000   1.57153
  17        5XY         0.00000   0.00000   0.00000
  18        5XZ         0.00000   0.00000   0.00000
  19        5YZ         0.00000   0.00000   0.00000
  20 2   H  1S         -0.21923  -0.99801  -0.95800
  21        2S          0.43993   1.51433   0.34694
      DENSITY MATRIX.
                           1         2         3         4         5
   1 1   Mg 1S          2.12150
   2        2S         -0.51467   2.18523
   3        2PX         0.00000   0.00000   1.97189
   4        2PY         0.00000   0.00000   0.00000   1.97189
   5        2PZ         0.00000   0.00000   0.00000   0.00000   2.01811
   6        3S         -0.00412  -0.11047   0.00000   0.00000   0.00000
   7        3PX         0.00000   0.00000   0.06549   0.00000  -0.00000
   8        3PY         0.00000   0.00000   0.00000   0.06549  -0.00000
   9        3PZ         0.00000   0.00000  -0.00000  -0.00000  -0.01921
  10        4S          0.01457  -0.08194   0.00000   0.00000   0.00000
  11        4PX         0.00000   0.00000  -0.02130   0.00000  -0.00000
  12        4PY         0.00000   0.00000   0.00000  -0.02130  -0.00000
  13        4PZ         0.00000   0.00000  -0.00000  -0.00000  -0.04555
  14        5XX         0.00866   0.00765   0.00000   0.00000   0.00000
  15        5YY         0.00866   0.00765   0.00000   0.00000   0.00000
  16        5ZZ         0.02265  -0.05872   0.00000   0.00000   0.00000
  17        5XY         0.00000   0.00000   0.00000   0.00000   0.00000
  18        5XZ         0.00000  -0.00000   0.00000   0.00000   0.00000
  19        5YZ         0.00000  -0.00000   0.00000   0.00000   0.00000
  20 2   H  1S          0.01488  -0.07758  -0.00000  -0.00000  -0.06394
  21        2S          0.01579  -0.08553  -0.00000  -0.00000  -0.10823
  22 3   H  1S          0.01488  -0.07758   0.00000   0.00000   0.06394
  23        2S          0.01579  -0.08553   0.00000   0.00000   0.10823
                           6         7         8         9        10
   6        3S          0.37475
   7        3PX         0.00000   0.00218
   8        3PY         0.00000   0.00000   0.00218
   9        3PZ         0.00000   0.00000   0.00000   0.19809
  10        4S          0.16369   0.00000   0.00000   0.00000   0.07206
  11        4PX         0.00000  -0.00071   0.00000   0.00000   0.00000
  12        4PY         0.00000   0.00000  -0.00071   0.00000   0.00000
  13        4PZ         0.00000   0.00000   0.00000   0.06139   0.00000
  14        5XX        -0.05464   0.00000   0.00000   0.00000  -0.02371
  15        5YY        -0.05464   0.00000   0.00000   0.00000  -0.02371
  16        5ZZ         0.08211   0.00000   0.00000   0.00000   0.03647
  17        5XY         0.00000   0.00000   0.00000   0.00000   0.00000
  18        5XZ         0.00000   0.00000   0.00000   0.00000   0.00000
  19        5YZ         0.00000   0.00000   0.00000   0.00000   0.00000
  20 2   H  1S          0.16640   0.00000   0.00000   0.14543   0.07317
  21        2S          0.17970   0.00000   0.00000   0.18343   0.07904
  22 3   H  1S          0.16640  -0.00000  -0.00000  -0.14543   0.07317
  23        2S          0.17970  -0.00000  -0.00000  -0.18343   0.07904
                          11        12        13        14        15
  11        4PX         0.00023
  12        4PY         0.00000   0.00023
  13        4PZ         0.00000   0.00000   0.01980
  14        5XX         0.00000   0.00000   0.00000   0.00802
  15        5YY         0.00000   0.00000   0.00000   0.00802   0.00802
  16        5ZZ         0.00000   0.00000   0.00000  -0.01179  -0.01179
  17        5XY         0.00000   0.00000   0.00000   0.00000   0.00000
  18        5XZ         0.00000   0.00000   0.00000  -0.00000  -0.00000
  19        5YZ         0.00000   0.00000   0.00000  -0.00000  -0.00000
  20 2   H  1S          0.00000   0.00000   0.04605  -0.02412  -0.02412
  21        2S          0.00000   0.00000   0.05862  -0.02604  -0.02604
  22 3   H  1S         -0.00000  -0.00000  -0.04605  -0.02412  -0.02412
  23        2S         -0.00000  -0.00000  -0.05862  -0.02604  -0.02604
                          16        17        18        19        20
  16        5ZZ         0.01866
  17        5XY         0.00000  -0.00000
  18        5XZ         0.00000   0.00000   0.00000
  19        5YZ         0.00000   0.00000   0.00000   0.00000
  20 2   H  1S          0.03699   0.00000   0.00000   0.00000   0.18232
  21        2S          0.03997   0.00000   0.00000   0.00000   0.21717
  22 3   H  1S          0.03699   0.00000   0.00000   0.00000  -0.03370
  23        2S          0.03997   0.00000   0.00000   0.00000  -0.05663
                          21        22        23
  21        2S          0.26061
  22 3   H  1S         -0.05663   0.18232
  23        2S         -0.08720   0.21717   0.26061
    Full Mulliken population analysis:
                           1         2         3         4         5
   1 1   Mg 1S          2.12150
   2        2S         -0.12288   2.18523
   3        2PX         0.00000   0.00000   1.97189
   4        2PY         0.00000   0.00000   0.00000   1.97189
   5        2PZ         0.00000   0.00000  -0.00000   0.00000   2.01811
   6        3S         -0.00001  -0.02452   0.00000   0.00000   0.00000
   7        3PX         0.00000   0.00000   0.01471   0.00000   0.00000
   8        3PY         0.00000   0.00000   0.00000   0.01471   0.00000
   9        3PZ         0.00000   0.00000   0.00000   0.00000  -0.00431
  10        4S          0.00034  -0.01782   0.00000   0.00000   0.00000
  11        4PX         0.00000   0.00000  -0.00137   0.00000   0.00000
  12        4PY         0.00000   0.00000   0.00000  -0.00137   0.00000
  13        4PZ         0.00000   0.00000   0.00000   0.00000  -0.00293
  14        5XX         0.00001   0.00065   0.00000   0.00000   0.00000
  15        5YY         0.00001   0.00065   0.00000   0.00000   0.00000
  16        5ZZ         0.00002  -0.00502   0.00000   0.00000   0.00000
  17        5XY         0.00000   0.00000   0.00000   0.00000   0.00000
  18        5XZ         0.00000   0.00000   0.00000   0.00000   0.00000
  19        5YZ         0.00000   0.00000   0.00000   0.00000   0.00000
  20 2   H  1S          0.00000  -0.00089  -0.00000  -0.00000  -0.00139
  21        2S          0.00019  -0.00998  -0.00000  -0.00000  -0.00855
  22 3   H  1S          0.00000  -0.00089   0.00000  -0.00000  -0.00139
  23        2S          0.00019  -0.00998   0.00000  -0.00000  -0.00855
                           6         7         8         9        10
   6        3S          0.37475
   7        3PX         0.00000   0.00218
   8        3PY         0.00000   0.00000   0.00218
   9        3PZ         0.00000  -0.00000   0.00000   0.19809
  10        4S          0.14030   0.00000   0.00000   0.00000   0.07206
  11        4PX         0.00000  -0.00049   0.00000  -0.00000   0.00000
  12        4PY         0.00000   0.00000  -0.00049   0.00000   0.00000
  13        4PZ         0.00000  -0.00000   0.00000   0.04233   0.00000
  14        5XX        -0.03919   0.00000   0.00000   0.00000  -0.01552
  15        5YY        -0.03919   0.00000   0.00000   0.00000  -0.01552
  16        5ZZ         0.05888   0.00000   0.00000   0.00000   0.02387
  17        5XY         0.00000   0.00000   0.00000   0.00000   0.00000
  18        5XZ         0.00000   0.00000   0.00000   0.00000   0.00000
  19        5YZ         0.00000   0.00000   0.00000   0.00000   0.00000
  20 2   H  1S          0.03561   0.00000   0.00000   0.05244   0.01446
  21        2S          0.08956   0.00000   0.00000   0.10994   0.04055
  22 3   H  1S          0.03561   0.00000   0.00000   0.05244   0.01446
  23        2S          0.08956   0.00000   0.00000   0.10994   0.04055
                          11        12        13        14        15
  11        4PX         0.00023
  12        4PY         0.00000   0.00023
  13        4PZ        -0.00000   0.00000   0.01980
  14        5XX         0.00000   0.00000   0.00000   0.00802
  15        5YY         0.00000   0.00000   0.00000   0.00267   0.00802
  16        5ZZ         0.00000   0.00000   0.00000  -0.00393  -0.00393
  17        5XY         0.00000   0.00000   0.00000   0.00000   0.00000
  18        5XZ         0.00000   0.00000   0.00000  -0.00000  -0.00000
  19        5YZ         0.00000   0.00000   0.00000  -0.00000  -0.00000
  20 2   H  1S          0.00000   0.00000   0.01143  -0.00087  -0.00087
  21        2S          0.00000   0.00000   0.03178  -0.00645  -0.00645
  22 3   H  1S          0.00000   0.00000   0.01143  -0.00087  -0.00087
  23        2S          0.00000   0.00000   0.03178  -0.00645  -0.00645
                          16        17        18        19        20
  16        5ZZ         0.01866
  17        5XY         0.00000  -0.00000
  18        5XZ        -0.00000   0.00000   0.00000
  19        5YZ        -0.00000   0.00000   0.00000   0.00000
  20 2   H  1S          0.01708   0.00000   0.00000   0.00000   0.18232
  21        2S          0.02605   0.00000   0.00000   0.00000   0.14296
  22 3   H  1S          0.01708   0.00000   0.00000   0.00000  -0.00000
  23        2S          0.02605   0.00000   0.00000   0.00000  -0.00015
                          21        22        23
  21        2S          0.26061
  22 3   H  1S         -0.00015   0.18232
  23        2S         -0.00291   0.14296   0.26061
     Gross orbital populations:
                           1
   1 1   Mg 1S          1.99937
   2        2S          1.99456
   3        2PX         1.98523
   4        2PY         1.98523
   5        2PZ         1.99098
   6        3S          0.72137
   7        3PX         0.01640
   8        3PY         0.01640
   9        3PZ         0.56086
  10        4S          0.29774
  11        4PX        -0.00163
  12        4PY        -0.00163
  13        4PZ         0.14563
  14        5XX        -0.06193
  15        5YY        -0.06193
  16        5ZZ         0.17482
  17        5XY        -0.00000
  18        5XZ         0.00000
  19        5YZ         0.00000
  20 2   H  1S          0.45212
  21        2S          0.66715
  22 3   H  1S          0.45212
  23        2S          0.66715
          Condensed to atoms (all electrons):
               1          2          3
     1  Mg  10.974179   0.393634   0.393634
     2  H    0.393634   0.728853  -0.003210
     3  H    0.393634  -0.003210   0.728853
 Mulliken charges:
               1
     1  Mg   0.238553
     2  H   -0.119277
     3  H   -0.119277
 Sum of Mulliken charges =   0.00000
 Mulliken charges with hydrogens summed into heavy atoms:
               1
     1  Mg   0.000000
 Electronic spatial extent (au):  <R**2>=             53.5750
 Charge=              0.0000 electrons
 Dipole moment (field-independent basis, Debye):
    X=             -0.0000    Y=             -0.0000    Z=              0.0000  Tot=              0.0000
 Quadrupole moment (field-independent basis, Debye-Ang):
   XX=            -10.5797   YY=            -10.5797   ZZ=            -22.5384
   XY=              0.0000   XZ=              0.0000   YZ=             -0.0000
 Traceless Quadrupole moment (field-independent basis, Debye-Ang):
   XX=              3.9862   YY=              3.9862   ZZ=             -7.9725
   XY=              0.0000   XZ=              0.0000   YZ=             -0.0000
 Octapole moment (field-independent basis, Debye-Ang**2):
  XXX=             -0.0000  YYY=              0.0000  ZZZ=              0.0000  XYY=             -0.0000
  XXY=              0.0000  XXZ=             -0.0000  XZZ=             -0.0000  YZZ=              0.0000
  YYZ=              0.0000  XYZ=             -0.0000
 Hexadecapole moment (field-independent basis, Debye-Ang**3):
 XXXX=            -16.5869 YYYY=            -16.5869 ZZZZ=           -110.1659 XXXY=              0.0000
 XXXZ=              0.0000 YYYX=              0.0000 YYYZ=             -0.0000 ZZZX=              0.0000
 ZZZY=             -0.0000 XXYY=             -5.5290 XXZZ=            -19.4624 YYZZ=            -19.4624
 XXYZ=             -0.0000 YYXZ=              0.0000 ZZXY=              0.0000
 N-N= 7.545300940107D+00 E-N=-4.959824542161D+02  KE= 2.004520503700D+02
 Symmetry AG   KE= 1.529571962589D+02
 Symmetry B1G  KE=-9.630884428918D-51
 Symmetry B2G  KE= 3.962672247318D-34
 Symmetry B3G  KE= 3.962672247318D-34
 Symmetry AU   KE= 0.000000000000D+00
 Symmetry B1U  KE= 1.659473073192D+01
 Symmetry B2U  KE= 1.545006168957D+01
 Symmetry B3U  KE= 1.545006168957D+01
 Orbital energies and kinetic energies (alpha):
                                 1                 2
   1 (SGG)--O                -46.705430         67.226628
   2 (SGG)--O                 -3.065392          8.657247
   3 (PIU)--O                 -1.804694          7.725031
   4 (PIU)--O                 -1.804694          7.725031
   5 (SGU)--O                 -1.794939          7.710809
   6 (SGG)--O                 -0.291443          0.594722
   7 (SGU)--O                 -0.246707          0.586556
   8 (PIU)--V                 -0.028489          0.308474
   9 (PIU)--V                 -0.028489          0.308474
  10 (SGG)--V                  0.001233          0.496260
  11 (SGU)--V                  0.092537          0.288375
  12 (SGG)--V                  0.109429          0.544312
  13 (PIU)--V                  0.171480          0.844932
  14 (PIU)--V                  0.171480          0.844932
  15 (PIG)--V                  0.254483          0.612500
  16 (PIG)--V                  0.254483          0.612500
  17 (SGU)--V                  0.285396          1.115478
  18 (DLTG)--V                 0.296365          0.612500
  19 (DLTG)--V                 0.296384          0.612500
  20 (SGG)--V                  0.468231          0.820408
  21 (SGG)--V                  0.814445          2.927694
  22 (SGU)--V                  1.064848          2.115664
  23 (SGG)--V                  1.107510          2.213619
 Total kinetic energy from orbitals= 2.004520503700D+02
 1\1\ WCSS.PL-BEM-NODE1\SP\RTPSSh\6-31G(d)\H2Mg1\LCHENG\22-Dec-2016\0\\
 # tpssh/6-31G* symm=loos gfoldprint pop(full)\\Auh2f\\0,1\Mg,0,0.,0.,0
 .000007\H,0,0.,0.,-1.718267\H,0,0.,0.,1.718183\\Version=ES64L-G09RevE.
 01\State=1-SGG\HF=-201.2369798\RMSD=6.138e-10\Dipole=0.,0.,0.\Quadrupo
 le=2.9636762,2.9636762,-5.9273524,0.,0.,0.\PG=D*H [O(Mg1),C*(H1.H1)]\\
 @


 Not by the face shall a man be known, but by the mask.
                               -- Karen Blixen
 Job cpu time:       0 days  0 hours  0 minutes  7.0 seconds.
 File lengths (MBytes):  RWF=      5 Int=      0 D2E=      0 Chk=      1 Scr=      1
 Normal termination of Gaussian 03 at Thu Dec 22 16:12:14 2016.
