 Entering Gaussian System, Link 0=g09
 Input=nbo.com
 Output=nbo.log
 Initial command:
 /opt/Gaussian/g09/l1.exe "/usr/local/g09tmp/Gau-15458.inp" -scrdir="/usr/local/g09tmp/"
 Entering Link 1 = /opt/Gaussian/g09/l1.exe PID=     15459.

 Copyright (c) 1988,1990,1992,1993,1995,1998,2003,2009,2015,
            Gaussian, Inc.  All Rights Reserved.

 This is part of the Gaussian(R) 09 program.  It is based on
 the Gaussian(R) 03 system (copyright 2003, Gaussian, Inc.),
 the Gaussian(R) 98 system (copyright 1998, Gaussian, Inc.),
 the Gaussian(R) 94 system (copyright 1995, Gaussian, Inc.),
 the Gaussian 92(TM) system (copyright 1992, Gaussian, Inc.),
 the Gaussian 90(TM) system (copyright 1990, Gaussian, Inc.),
 the Gaussian 88(TM) system (copyright 1988, Gaussian, Inc.),
 the Gaussian 86(TM) system (copyright 1986, Carnegie Mellon
 University), and the Gaussian 82(TM) system (copyright 1983,
 Carnegie Mellon University). Gaussian is a federally registered
 trademark of Gaussian, Inc.

 This software contains proprietary and confidential information,
 including trade secrets, belonging to Gaussian, Inc.

 This software is provided under written license and may be
 used, copied, transmitted, or stored only in accord with that
 written license.

 The following legend is applicable only to US Government
 contracts under FAR:

                    RESTRICTED RIGHTS LEGEND

 Use, reproduction and disclosure by the US Government is
 subject to restrictions as set forth in subparagraphs (a)
 and (c) of the Commercial Computer Software - Restricted
 Rights clause in FAR 52.227-19.

 Gaussian, Inc.
 340 Quinnipiac St., Bldg. 40, Wallingford CT 06492


 ---------------------------------------------------------------
 Warning -- This program may not be used in any manner that
 competes with the business of Gaussian, Inc. or will provide
 assistance to any competitor of Gaussian, Inc.  The licensee
 of this program is prohibited from giving any competitor of
 Gaussian, Inc. access to this program.  By using this program,
 the user acknowledges that Gaussian, Inc. is engaged in the
 business of creating and licensing software in the field of
 computational chemistry and represents and warrants to the
 licensee that it is not a competitor of Gaussian, Inc. and that
 it will not use this program in any manner prohibited above.
 ---------------------------------------------------------------


 Cite this work as:
 Gaussian 09, Revision E.01,
 M. J. Frisch, G. W. Trucks, H. B. Schlegel, G. E. Scuseria,
 M. A. Robb, J. R. Cheeseman, G. Scalmani, V. Barone, B. Mennucci,
 G. A. Petersson, H. Nakatsuji, M. Caricato, X. Li, H. P. Hratchian,
 A. F. Izmaylov, J. Bloino, G. Zheng, J. L. Sonnenberg, M. Hada,
 M. Ehara, K. Toyota, R. Fukuda, J. Hasegawa, M. Ishida, T. Nakajima,
 Y. Honda, O. Kitao, H. Nakai, T. Vreven, J. A. Montgomery, Jr.,
 J. E. Peralta, F. Ogliaro, M. Bearpark, J. J. Heyd, E. Brothers,
 K. N. Kudin, V. N. Staroverov, T. Keith, R. Kobayashi, J. Normand,
 K. Raghavachari, A. Rendell, J. C. Burant, S. S. Iyengar, J. Tomasi,
 M. Cossi, N. Rega, J. M. Millam, M. Klene, J. E. Knox, J. B. Cross,
 V. Bakken, C. Adamo, J. Jaramillo, R. Gomperts, R. E. Stratmann,
 O. Yazyev, A. J. Austin, R. Cammi, C. Pomelli, J. W. Ochterski,
 R. L. Martin, K. Morokuma, V. G. Zakrzewski, G. A. Voth,
 P. Salvador, J. J. Dannenberg, S. Dapprich, A. D. Daniels,
 O. Farkas, J. B. Foresman, J. V. Ortiz, J. Cioslowski,
 and D. J. Fox, Gaussian, Inc., Wallingford CT, 2013.

 ******************************************
 Gaussian 09:  ES64L-G09RevE.01 30-Nov-2015
                22-Dec-2016
 ******************************************
 %nproc=8
 Will use up to    8 processors via shared memory.
 %mem=16GB
 -------------------------------------
 # tpssh/6-31G* pop(nboread) symm=loos
 -------------------------------------
 1/38=1/1;
 2/12=2,17=4,18=3,40=1/2;
 3/5=1,6=6,7=1,11=2,16=1,25=1,30=1,74=-35/1,2,3;
 4//1;
 5/5=2,38=5/2;
 6/7=2,8=2,9=2,10=2,28=1,40=2/1,7;
 99/5=1,9=1/99;
 -----
 Auh2f
 -----
 Symbolic Z-matrix:
 Charge =  0 Multiplicity = 1
 Na                    0.        0.        0.15817
 H                     0.        0.       -1.73992

                          Input orientation:
 ---------------------------------------------------------------------
 Center     Atomic      Atomic             Coordinates (Angstroms)
 Number     Number       Type             X           Y           Z
 ---------------------------------------------------------------------
      1         11           0        0.000000    0.000000    0.158174
      2          1           0        0.000000    0.000000   -1.739916
 ---------------------------------------------------------------------
 Stoichiometry    HNa
 Framework group  C*V[C*(HNa)]
 Deg. of freedom     1
 Full point group                 C*V     NOp   4
 Largest Abelian subgroup         C2V     NOp   4
 Largest concise Abelian subgroup C1      NOp   1
                         Standard orientation:
 ---------------------------------------------------------------------
 Center     Atomic      Atomic             Coordinates (Angstroms)
 Number     Number       Type             X           Y           Z
 ---------------------------------------------------------------------
      1         11           0        0.000000    0.000000    0.158174
      2          1           0        0.000000    0.000000   -1.739916
 ---------------------------------------------------------------------
 Rotational constants (GHZ):      0.0000000    145.2886019    145.2886019
 Standard basis: 6-31G(d) (6D, 7F)
 There are    12 symmetry adapted cartesian basis functions of A1  symmetry.
 There are     1 symmetry adapted cartesian basis functions of A2  symmetry.
 There are     4 symmetry adapted cartesian basis functions of B1  symmetry.
 There are     4 symmetry adapted cartesian basis functions of B2  symmetry.
 There are    12 symmetry adapted basis functions of A1  symmetry.
 There are     1 symmetry adapted basis functions of A2  symmetry.
 There are     4 symmetry adapted basis functions of B1  symmetry.
 There are     4 symmetry adapted basis functions of B2  symmetry.
    21 basis functions,    56 primitive gaussians,    21 cartesian basis functions
     6 alpha electrons        6 beta electrons
       nuclear repulsion energy         3.0667404046 Hartrees.
 NAtoms=    2 NActive=    2 NUniq=    2 SFac= 1.00D+00 NAtFMM=   60 NAOKFM=F Big=F
 Integral buffers will be    131072 words long.
 Raffenetti 2 integral format.
 Two-electron integral symmetry is turned on.
 One-electron integrals computed using PRISM.
 NBasis=    21 RedAO= T EigKep=  1.92D-02  NBF=    12     1     4     4
 NBsUse=    21 1.00D-06 EigRej= -1.00D+00 NBFU=    12     1     4     4
 ExpMin= 2.60D-02 ExpMax= 9.99D+03 ExpMxC= 1.50D+03 IAcc=3 IRadAn=         5 AccDes= 0.00D+00
 Harris functional with IExCor= 1009 and IRadAn=       5 diagonalized for initial guess.
 HarFok:  IExCor= 1009 AccDes= 0.00D+00 IRadAn=         5 IDoV= 1 UseB2=F ITyADJ=14
 ICtDFT=  3500011 ScaDFX=  1.000000  1.000000  1.000000  1.000000
 FoFCou: FMM=F IPFlag=           0 FMFlag=      100000 FMFlg1=           0
         NFxFlg=           0 DoJE=T BraDBF=F KetDBF=T FulRan=T
         wScrn=  0.000000 ICntrl=     500 IOpCl=  0 I1Cent=   200000004 NGrid=           0
         NMat0=    1 NMatS0=      1 NMatT0=    0 NMatD0=    1 NMtDS0=    0 NMtDT0=    0
 Petite list used in FoFCou.
 Initial guess orbital symmetries:
       Occupied  (SG) (SG) (SG) (PI) (PI) (SG)
       Virtual   (SG) (PI) (PI) (SG) (SG) (PI) (PI) (SG) (PI) (PI)
                 (DLTA) (DLTA) (SG) (SG) (SG)
 The electronic state of the initial guess is 1-SG.
 Keep R1 ints in memory in symmetry-blocked form, NReq=908293.
 Requested convergence on RMS density matrix=1.00D-08 within 128 cycles.
 Requested convergence on MAX density matrix=1.00D-06.
 Requested convergence on             energy=1.00D-06.
 No special actions if energy rises.
 SCF Done:  E(RTPSSh) =  -162.843087217     A.U. after   10 cycles
            NFock= 10  Conv=0.16D-09     -V/T= 2.0046

 **********************************************************************

            Population analysis using the SCF density.

 **********************************************************************

 Orbital symmetries:
       Occupied  (SG) (SG) (PI) (PI) (SG) (SG)
       Virtual   (SG) (PI) (PI) (SG) (SG) (PI) (PI) (SG) (PI) (PI)
                 (DLTA) (DLTA) (SG) (SG) (SG)
 The electronic state is 1-SG.
 Alpha  occ. eigenvalues --  -38.37951  -2.18677  -1.11327  -1.11327  -1.10966
 Alpha  occ. eigenvalues --   -0.16885
 Alpha virt. eigenvalues --   -0.05478  -0.00180  -0.00180   0.05840   0.07291
 Alpha virt. eigenvalues --    0.12993   0.12993   0.16964   0.34440   0.34440
 Alpha virt. eigenvalues --    0.35940   0.35941   0.46526   0.51010   1.05089
          Condensed to atoms (all electrons):
               1          2
     1  Na  10.421031   0.338950
     2  H    0.338950   0.901069
 Mulliken charges:
               1
     1  Na   0.240019
     2  H   -0.240019
 Sum of Mulliken charges =  -0.00000
 Mulliken charges with hydrogens summed into heavy atoms:
               1
     1  Na  -0.000000
 Electronic spatial extent (au):  <R**2>=             36.6348
 Charge=             -0.0000 electrons
 Dipole moment (field-independent basis, Debye):
    X=              0.0000    Y=              0.0000    Z=              6.2604  Tot=              6.2604
 Quadrupole moment (field-independent basis, Debye-Ang):
   XX=             -8.9615   YY=             -8.9615   ZZ=            -15.4894
   XY=              0.0000   XZ=              0.0000   YZ=              0.0000
 Traceless Quadrupole moment (field-independent basis, Debye-Ang):
   XX=              2.1760   YY=              2.1760   ZZ=             -4.3520
   XY=              0.0000   XZ=              0.0000   YZ=              0.0000
 Octapole moment (field-independent basis, Debye-Ang**2):
  XXX=              0.0000  YYY=              0.0000  ZZZ=             26.8193  XYY=              0.0000
  XXY=              0.0000  XXZ=              6.1741  XZZ=              0.0000  YZZ=              0.0000
  YYZ=              6.1741  XYZ=              0.0000
 Hexadecapole moment (field-independent basis, Debye-Ang**3):
 XXXX=            -21.1953 YYYY=            -21.1953 ZZZZ=            -81.4090 XXXY=              0.0000
 XXXZ=              0.0000 YYYX=              0.0000 YYYZ=              0.0000 ZZZX=              0.0000
 ZZZY=              0.0000 XXYY=             -7.0651 XXZZ=            -15.1539 YYZZ=            -15.1539
 XXYZ=              0.0000 YYXZ=              0.0000 ZZXY=              0.0000
 N-N= 3.066740404559D+00 E-N=-3.966648411038D+02  KE= 1.621031623198D+02
 Symmetry A1   KE= 1.387336729156D+02
 Symmetry A2   KE= 1.504825692019D-52
 Symmetry B1   KE= 1.168474470211D+01
 Symmetry B2   KE= 1.168474470211D+01
 ******************************Gaussian NBO Version 3.1******************************
             N A T U R A L   A T O M I C   O R B I T A L   A N D
          N A T U R A L   B O N D   O R B I T A L   A N A L Y S I S
 ******************************Gaussian NBO Version 3.1******************************

       /RESON  / : Allow strongly delocalized NBO set
       /AONAO  / : Print the AO to NAO transformation
       /DMNAO  / : Print the NAO density matrix

 Analyzing the SCF density

 Job title: Auh2f

 Storage needed:      1527 in NPA,      2215 in NBO (2147483620 available)


 NATURAL POPULATIONS:  Natural atomic orbital occupancies

   NAO  Atom  No  lang   Type(AO)    Occupancy      Energy
 ----------------------------------------------------------
     1   Na    1  S      Cor( 1S)     2.00000     -38.15753
     2   Na    1  S      Cor( 2S)     1.99992      -2.40183
     3   Na    1  S      Val( 3S)     0.39735      -0.05589
     4   Na    1  S      Ryd( 4S)     0.00001       0.13265
     5   Na    1  S      Ryd( 5S)     0.00000       0.43449
     6   Na    1  px     Cor( 2p)     1.99996      -1.11324
     7   Na    1  px     Ryd( 3p)     0.00000       0.00306
     8   Na    1  px     Ryd( 4p)     0.00000       0.12576
     9   Na    1  py     Cor( 2p)     1.99996      -1.11324
    10   Na    1  py     Ryd( 3p)     0.00000       0.00306
    11   Na    1  py     Ryd( 4p)     0.00000       0.12576
    12   Na    1  pz     Cor( 2p)     1.99810      -1.10733
    13   Na    1  pz     Ryd( 4p)     0.01882       0.19966
    14   Na    1  pz     Ryd( 3p)     0.00000       0.13984
    15   Na    1  dxy    Ryd( 3d)     0.00000       0.35940
    16   Na    1  dxz    Ryd( 3d)     0.00004       0.34368
    17   Na    1  dyz    Ryd( 3d)     0.00004       0.34368
    18   Na    1  dx2y2  Ryd( 3d)     0.00000       0.35941
    19   Na    1  dz2    Ryd( 3d)     0.00008       0.43994

    20    H    2  S      Val( 1S)     1.58569      -0.14044
    21    H    2  S      Ryd( 2S)     0.00002       0.94406

 WARNING:  1 low occupancy (<1.9990e) core orbital  found on Na    1

 WARNING:  Population inversion found on atom Na    1


 Summary of Natural Population Analysis:

                                       Natural Population
                Natural  -----------------------------------------------
    Atom  No    Charge         Core      Valence    Rydberg      Total
 -----------------------------------------------------------------------
     Na    1    0.58571      9.99794     0.39735    0.01899    10.41429
      H    2   -0.58571      0.00000     1.58569    0.00002     1.58571
 =======================================================================
   * Total *   -0.00000      9.99794     1.98304    0.01902    12.00000

                                 Natural Population
 --------------------------------------------------------
   Core                       9.99794 ( 99.9794% of  10)
   Valence                    1.98304 ( 99.1522% of   2)
   Natural Minimal Basis     11.98098 ( 99.8415% of  12)
   Natural Rydberg Basis      0.01902 (  0.1585% of  12)
 --------------------------------------------------------

    Atom  No          Natural Electron Configuration
 ----------------------------------------------------------------------------
     Na    1      [core]3S( 0.40)4p( 0.02)
      H    2            1S( 1.59)


 NAOs in the AO basis:

          AO         1       2       3       4       5       6       7       8
      ---------- ------- ------- ------- ------- ------- ------- ------- -------
   1. Na 1 (S)    1.0140 -0.1678  0.0333 -0.0260  0.0043  0.0000 -0.0000  0.0000
   2. Na 1 (S)   -0.0715  1.0310 -0.1571 -0.1778 -0.1437 -0.0000 -0.0000  0.0000
   3. Na 1 (px)  -0.0000 -0.0000  0.0000 -0.0000 -0.0000  0.9960 -0.1343  0.1882
   4. Na 1 (py)   0.0000  0.0000  0.0000 -0.0000 -0.0000 -0.0000  0.0000 -0.0000
   5. Na 1 (pz)  -0.0000 -0.0032 -0.0289  0.0058  0.0050 -0.0000  0.0000 -0.0000
   6. Na 1 (S)   -0.0012 -0.0033  0.5970 -6.2127 -5.7582  0.0000 -0.0000  0.0000
   7. Na 1 (px)  -0.0000 -0.0000  0.0000  0.0000  0.0000  0.0228  0.4505 -1.3042
   8. Na 1 (py)   0.0000  0.0000 -0.0000 -0.0000  0.0000  0.0000 -0.0000  0.0000
   9. Na 1 (pz)  -0.0000 -0.0002  0.0031  0.0533  0.0214  0.0000 -0.0000  0.0000
  10. Na 1 (S)    0.0003 -0.0090  0.4459  3.1940  1.1097  0.0000  0.0000 -0.0000
  11. Na 1 (px)   0.0000  0.0000 -0.0000  0.0000  0.0000 -0.0072  0.6474  1.1936
  12. Na 1 (py)  -0.0000 -0.0000 -0.0000  0.0000  0.0000 -0.0000  0.0000 -0.0000
  13. Na 1 (pz)   0.0000  0.0000  0.0003  0.0026  0.0068 -0.0000  0.0000 -0.0000
  14. Na 1 (d1)  -0.0003 -0.0015  0.0546  1.5097  2.2584 -0.0000  0.0000 -0.0000
  15. Na 1 (d4)  -0.0003 -0.0015  0.0546  1.5097  2.2584 -0.0000  0.0000 -0.0000
  16. Na 1 (d6)  -0.0003 -0.0015  0.0509  1.4603  2.2483 -0.0000  0.0000 -0.0000
  17. Na 1 (d2)   0.0000  0.0000  0.0000  0.0000  0.0000  0.0000  0.0000  0.0000
  18. Na 1 (d3)   0.0000  0.0000  0.0000  0.0000  0.0000  0.0000  0.0000  0.0000
  19. Na 1 (d5)   0.0000  0.0000  0.0000  0.0000  0.0000  0.0000  0.0000  0.0000
  20.  H 2 (S)   -0.0001 -0.0077 -0.0610 -0.0147 -0.1212 -0.0000 -0.0000  0.0000
  21.  H 2 (S)   -0.0004 -0.0369 -0.2862  0.1636  0.1234 -0.0000  0.0000 -0.0000

          AO         9      10      11      12      13      14      15      16
      ---------- ------- ------- ------- ------- ------- ------- ------- -------
   1. Na 1 (S)   -0.0000  0.0000 -0.0000  0.0001 -0.0024  0.0018  0.0000  0.0000
   2. Na 1 (S)    0.0000 -0.0000  0.0000 -0.0015 -0.0621  0.0238  0.0000  0.0000
   3. Na 1 (px)  -0.0000  0.0000 -0.0000 -0.0000 -0.0000 -0.0000  0.0000  0.0000
   4. Na 1 (py)   0.9960 -0.1343  0.1882  0.0000 -0.0000  0.0000  0.0000  0.0000
   5. Na 1 (pz)   0.0000  0.0000  0.0000  1.0001 -0.0859  0.1696  0.0000  0.0000
   6. Na 1 (S)    0.0000 -0.0000  0.0000 -0.0105 -1.0320  0.4683  0.0000  0.0000
   7. Na 1 (px)   0.0000 -0.0000  0.0000 -0.0000  0.0000  0.0000  0.0000  0.0000
   8. Na 1 (py)   0.0228  0.4505 -1.3042  0.0000 -0.0000 -0.0000  0.0000  0.0000
   9. Na 1 (pz)   0.0000  0.0000 -0.0000  0.0219  1.0300 -1.5900  0.0000  0.0000
  10. Na 1 (S)    0.0000  0.0000 -0.0000 -0.0028  0.0309 -0.0129  0.0000  0.0000
  11. Na 1 (px)   0.0000 -0.0000 -0.0000 -0.0000  0.0000  0.0000  0.0000  0.0000
  12. Na 1 (py)  -0.0072  0.6474  1.1936 -0.0000 -0.0000  0.0000  0.0000  0.0000
  13. Na 1 (pz)  -0.0000 -0.0000  0.0000 -0.0073  0.6832  1.1838  0.0000  0.0000
  14. Na 1 (d1)  -0.0000  0.0000 -0.0000 -0.0002  0.3074 -0.1451  0.0000  0.0000
  15. Na 1 (d4)  -0.0000  0.0000 -0.0000 -0.0002  0.3074 -0.1451  0.0000  0.0000
  16. Na 1 (d6)  -0.0000  0.0000 -0.0000  0.0007 -0.2169  0.1267  0.0000  0.0000
  17. Na 1 (d2)   0.0000  0.0000  0.0000  0.0000  0.0000  0.0000  1.0000  0.0000
  18. Na 1 (d3)   0.0000  0.0000  0.0000  0.0000  0.0000  0.0000  0.0000  1.0000
  19. Na 1 (d5)   0.0000  0.0000  0.0000  0.0000  0.0000  0.0000  0.0000  0.0000
  20.  H 2 (S)   -0.0000  0.0000  0.0000  0.0103 -0.3694  0.0309  0.0000  0.0000
  21.  H 2 (S)   -0.0000  0.0000  0.0000  0.0437  1.6669 -0.7267  0.0000  0.0000

          AO        17      18      19      20      21
      ---------- ------- ------- ------- ------- -------
   1. Na 1 (S)    0.0000  0.0000  0.0030  0.0014 -0.0047
   2. Na 1 (S)    0.0000  0.0000  0.0293 -0.0202  0.0648
   3. Na 1 (px)   0.0000  0.0000  0.0000 -0.0000  0.0000
   4. Na 1 (py)   0.0000  0.0000  0.0000 -0.0000  0.0000
   5. Na 1 (pz)   0.0000  0.0000 -0.0206  0.0515 -0.0913
   6. Na 1 (S)    0.0000  0.0000  0.6498 -0.1357  0.2693
   7. Na 1 (px)   0.0000  0.0000  0.0000 -0.0000  0.0000
   8. Na 1 (py)   0.0000  0.0000  0.0000 -0.0000  0.0000
   9. Na 1 (pz)   0.0000  0.0000 -0.4206  0.0012 -0.0022
  10. Na 1 (S)    0.0000  0.0000 -0.0197 -0.0298  0.0592
  11. Na 1 (px)   0.0000  0.0000 -0.0000  0.0000 -0.0000
  12. Na 1 (py)   0.0000  0.0000 -0.0000  0.0000 -0.0000
  13. Na 1 (pz)   0.0000  0.0000 -0.0089 -0.0003  0.0006
  14. Na 1 (d1)   0.0000  0.8660 -0.7089  0.0032 -0.0063
  15. Na 1 (d4)   0.0000 -0.8660 -0.7089  0.0032 -0.0063
  16. Na 1 (d6)   0.0000  0.0000  1.2008  0.0032 -0.0063
  17. Na 1 (d2)   0.0000  0.0000  0.0000  0.0000  0.0000
  18. Na 1 (d3)   0.0000  0.0000  0.0000  0.0000  0.0000
  19. Na 1 (d5)   1.0000  0.0000  0.0000  0.0000  0.0000
  20.  H 2 (S)    0.0000  0.0000 -0.0714  0.3126  1.3197
  21.  H 2 (S)    0.0000  0.0000 -0.9716  0.8305 -1.2506


 NAO density matrix:

          NAO        1       2       3       4       5       6       7       8
      ---------- ------- ------- ------- ------- ------- ------- ------- -------
   1. Na 1 (S)    2.0000 -0.0000  0.0000  0.0000 -0.0000 -0.0000 -0.0000  0.0000
   2. Na 1 (S)   -0.0000  1.9999  0.0000  0.0000 -0.0000 -0.0000  0.0000 -0.0000
   3. Na 1 (S)    0.0000  0.0000  0.3974 -0.0000  0.0000  0.0000 -0.0000  0.0000
   4. Na 1 (S)    0.0000  0.0000 -0.0000  0.0000 -0.0000 -0.0000 -0.0000 -0.0000
   5. Na 1 (S)   -0.0000 -0.0000  0.0000 -0.0000  0.0000 -0.0000 -0.0000 -0.0000
   6. Na 1 (px)  -0.0000 -0.0000  0.0000 -0.0000 -0.0000  2.0000  0.0021  0.0006
   7. Na 1 (px)  -0.0000  0.0000 -0.0000 -0.0000 -0.0000  0.0021  0.0000  0.0000
   8. Na 1 (px)   0.0000 -0.0000  0.0000 -0.0000 -0.0000  0.0006  0.0000  0.0000
   9. Na 1 (py)   0.0000  0.0000  0.0000 -0.0000 -0.0000 -0.0000  0.0000 -0.0000
  10. Na 1 (py)   0.0000  0.0000  0.0000 -0.0000 -0.0000  0.0000  0.0000 -0.0000
  11. Na 1 (py)   0.0000 -0.0000  0.0000 -0.0000 -0.0000 -0.0000 -0.0000 -0.0000
  12. Na 1 (pz)   0.0000  0.0000  0.0542 -0.0032  0.0014  0.0000  0.0000 -0.0000
  13. Na 1 (pz)   0.0001  0.0105 -0.0863 -0.0000  0.0000 -0.0000  0.0000 -0.0000
  14. Na 1 (pz)   0.0000 -0.0004 -0.0000  0.0000 -0.0000  0.0000  0.0000  0.0000
  15. Na 1 (d1)   0.0000  0.0000  0.0000  0.0000  0.0000  0.0000  0.0000  0.0000
  16. Na 1 (d2)  -0.0000 -0.0000  0.0000 -0.0000 -0.0000  0.0088  0.0000  0.0000
  17. Na 1 (d3)   0.0000  0.0000  0.0000 -0.0000 -0.0000 -0.0000  0.0000 -0.0000
  18. Na 1 (d4)   0.0000  0.0000 -0.0000 -0.0000 -0.0000 -0.0000  0.0000  0.0000
  19. Na 1 (d5)  -0.0001 -0.0009  0.0047 -0.0000  0.0000  0.0000 -0.0000  0.0000
  20.  H 2 (S)    0.0000  0.0011  0.7915  0.0002 -0.0001 -0.0000 -0.0000  0.0000
  21.  H 2 (S)    0.0001 -0.0068 -0.0000  0.0000 -0.0000  0.0000  0.0000  0.0000

          NAO        9      10      11      12      13      14      15      16
      ---------- ------- ------- ------- ------- ------- ------- ------- -------
   1. Na 1 (S)    0.0000  0.0000  0.0000  0.0000  0.0001  0.0000  0.0000 -0.0000
   2. Na 1 (S)    0.0000  0.0000 -0.0000  0.0000  0.0105 -0.0004  0.0000 -0.0000
   3. Na 1 (S)    0.0000  0.0000  0.0000  0.0542 -0.0863 -0.0000  0.0000  0.0000
   4. Na 1 (S)   -0.0000 -0.0000 -0.0000 -0.0032 -0.0000  0.0000  0.0000 -0.0000
   5. Na 1 (S)   -0.0000 -0.0000 -0.0000  0.0014  0.0000 -0.0000  0.0000 -0.0000
   6. Na 1 (px)  -0.0000  0.0000 -0.0000  0.0000 -0.0000  0.0000  0.0000  0.0088
   7. Na 1 (px)   0.0000  0.0000 -0.0000  0.0000  0.0000  0.0000  0.0000  0.0000
   8. Na 1 (px)  -0.0000 -0.0000 -0.0000 -0.0000 -0.0000  0.0000  0.0000  0.0000
   9. Na 1 (py)   2.0000  0.0021  0.0006  0.0000 -0.0000  0.0000  0.0000 -0.0000
  10. Na 1 (py)   0.0021  0.0000  0.0000  0.0000 -0.0000  0.0000  0.0000  0.0000
  11. Na 1 (py)   0.0006  0.0000  0.0000 -0.0000 -0.0000  0.0000  0.0000 -0.0000
  12. Na 1 (pz)   0.0000  0.0000 -0.0000  1.9981 -0.0042 -0.0013  0.0000 -0.0000
  13. Na 1 (pz)  -0.0000 -0.0000 -0.0000 -0.0042  0.0188 -0.0000  0.0000 -0.0000
  14. Na 1 (pz)   0.0000  0.0000  0.0000 -0.0013 -0.0000  0.0000  0.0000  0.0000
  15. Na 1 (d1)   0.0000  0.0000  0.0000  0.0000  0.0000  0.0000  0.0000  0.0000
  16. Na 1 (d2)  -0.0000  0.0000 -0.0000 -0.0000 -0.0000  0.0000  0.0000  0.0000
  17. Na 1 (d3)   0.0088  0.0000  0.0000  0.0000 -0.0000  0.0000  0.0000  0.0000
  18. Na 1 (d4)   0.0000 -0.0000 -0.0000 -0.0000  0.0000 -0.0000  0.0000  0.0000
  19. Na 1 (d5)   0.0000  0.0000  0.0000  0.0081 -0.0010 -0.0000  0.0000  0.0000
  20.  H 2 (S)   -0.0000  0.0000  0.0000 -0.0276 -0.1724  0.0000  0.0000 -0.0000
  21.  H 2 (S)    0.0000  0.0000  0.0000 -0.0015 -0.0000  0.0000  0.0000  0.0000

          NAO       17      18      19      20      21
      ---------- ------- ------- ------- ------- -------
   1. Na 1 (S)    0.0000  0.0000 -0.0001  0.0000  0.0001
   2. Na 1 (S)    0.0000  0.0000 -0.0009  0.0011 -0.0068
   3. Na 1 (S)    0.0000 -0.0000  0.0047  0.7915 -0.0000
   4. Na 1 (S)   -0.0000 -0.0000 -0.0000  0.0002  0.0000
   5. Na 1 (S)   -0.0000 -0.0000  0.0000 -0.0001 -0.0000
   6. Na 1 (px)  -0.0000 -0.0000  0.0000 -0.0000  0.0000
   7. Na 1 (px)   0.0000  0.0000 -0.0000 -0.0000  0.0000
   8. Na 1 (px)  -0.0000  0.0000  0.0000  0.0000  0.0000
   9. Na 1 (py)   0.0088  0.0000  0.0000 -0.0000  0.0000
  10. Na 1 (py)   0.0000 -0.0000  0.0000  0.0000  0.0000
  11. Na 1 (py)   0.0000 -0.0000  0.0000  0.0000  0.0000
  12. Na 1 (pz)   0.0000 -0.0000  0.0081 -0.0276 -0.0015
  13. Na 1 (pz)  -0.0000  0.0000 -0.0010 -0.1724 -0.0000
  14. Na 1 (pz)   0.0000 -0.0000 -0.0000  0.0000  0.0000
  15. Na 1 (d1)   0.0000  0.0000  0.0000  0.0000  0.0000
  16. Na 1 (d2)   0.0000  0.0000  0.0000 -0.0000  0.0000
  17. Na 1 (d3)   0.0000  0.0000  0.0000 -0.0000  0.0000
  18. Na 1 (d4)   0.0000 -0.0000 -0.0000 -0.0000 -0.0000
  19. Na 1 (d5)   0.0000 -0.0000  0.0001  0.0088 -0.0000
  20.  H 2 (S)   -0.0000 -0.0000  0.0088  1.5857  0.0000
  21.  H 2 (S)    0.0000 -0.0000 -0.0000  0.0000  0.0000


 NATURAL BOND ORBITAL ANALYSIS:

                       Occupancies       Lewis Structure    Low   High
           Occ.    -------------------  -----------------   occ   occ
  Cycle   Thresh.   Lewis   Non-Lewis     CR  BD  3C  LP    (L)   (NL)   Dev
 =============================================================================
   1(1)    1.90    11.99794   0.00206      5   1   0   0     0      0    0.00
 -----------------------------------------------------------------------------

 Structure accepted: No low occupancy Lewis orbitals

 WARNING:  1 low occupancy (<1.9990e) core orbital  found on Na    1

 --------------------------------------------------------
   Core                      9.99794 ( 99.979% of  10)
   Valence Lewis             2.00000 (100.000% of   2)
  ==================       ============================
   Total Lewis              11.99794 ( 99.983% of  12)
  -----------------------------------------------------
   Valence non-Lewis         0.00184 (  0.015% of  12)
   Rydberg non-Lewis         0.00022 (  0.002% of  12)
  ==================       ============================
   Total non-Lewis           0.00206 (  0.017% of  12)
 --------------------------------------------------------


       (Occupancy)   Bond orbital/ Coefficients/ Hybrids
 ---------------------------------------------------------------------------------
     1. (2.00000) BD ( 1)Na   1 - H   2
                ( 20.73%)   0.4554*Na   1 s( 95.47%)p 0.05(  4.52%)d 0.00(  0.01%)
                                           -0.0000  0.0000  0.9771  0.0002 -0.0001
                                            0.0000  0.0000  0.0000  0.0000  0.0000
                                            0.0000 -0.0000 -0.2127  0.0000  0.0000
                                            0.0000  0.0000  0.0000  0.0111
                ( 79.27%)   0.8903* H   2 s(100.00%)
                                            1.0000 -0.0000
     2. (2.00000) CR ( 1)Na   1           s(100.00%)
                                            1.0000  0.0000  0.0000  0.0000  0.0000
                                            0.0000  0.0000  0.0000  0.0000  0.0000
                                            0.0000  0.0000  0.0000  0.0000  0.0000
                                            0.0000  0.0000  0.0000  0.0000
     3. (1.99992) CR ( 2)Na   1           s(100.00%)
                                            0.0000  1.0000  0.0000  0.0000  0.0000
                                            0.0000  0.0000  0.0000  0.0000  0.0000
                                            0.0000  0.0000  0.0000  0.0000  0.0000
                                            0.0000  0.0000  0.0000  0.0000
     4. (1.99996) CR ( 3)Na   1           s(  0.00%)p 1.00(100.00%)
                                            0.0000  0.0000  0.0000  0.0000  0.0000
                                            1.0000  0.0000  0.0000  0.0000  0.0000
                                            0.0000  0.0000  0.0000  0.0000  0.0000
                                            0.0000  0.0000  0.0000  0.0000
     5. (1.99996) CR ( 4)Na   1           s(  0.00%)p 1.00(100.00%)
                                            0.0000  0.0000  0.0000  0.0000  0.0000
                                            0.0000  0.0000  0.0000  1.0000  0.0000
                                            0.0000  0.0000  0.0000  0.0000  0.0000
                                            0.0000  0.0000  0.0000  0.0000
     6. (1.99810) CR ( 5)Na   1           s(  0.00%)p 1.00(100.00%)
                                            0.0000  0.0000  0.0000  0.0000  0.0000
                                            0.0000  0.0000  0.0000  0.0000  0.0000
                                            0.0000  1.0000  0.0000  0.0000  0.0000
                                            0.0000  0.0000  0.0000  0.0000
     7. (0.00009) RY*( 1)Na   1           s(  7.26%)p10.90( 79.13%)d 1.87( 13.61%)
     8. (0.00004) RY*( 2)Na   1           s(  0.00%)p 1.00(  5.98%)d15.72( 94.02%)
     9. (0.00004) RY*( 3)Na   1           s(  0.00%)p 1.00(  5.98%)d15.72( 94.02%)
    10. (0.00002) RY*( 4)Na   1           s( 12.61%)p 1.38( 17.42%)d 5.55( 69.97%)
    11. (0.00000) RY*( 5)Na   1           s(  0.00%)p 1.00( 94.48%)d 0.06(  5.52%)
    12. (0.00000) RY*( 6)Na   1           s(  0.00%)p 1.00( 99.54%)d 0.00(  0.46%)
    13. (0.00000) RY*( 7)Na   1           s( 86.81%)p 0.00(  0.11%)d 0.15( 13.09%)
    14. (0.00000) RY*( 8)Na   1           s(  0.18%)p99.99( 98.80%)d 5.82(  1.02%)
    15. (0.00000) RY*( 9)Na   1           s(  0.00%)p 0.00(  0.00%)d 1.00(100.00%)
    16. (0.00000) RY*(10)Na   1           s( 97.68%)p 0.00(  0.02%)d 0.02(  2.30%)
    17. (0.00000) RY*(11)Na   1           s(  0.00%)p 1.00( 94.48%)d 0.06(  5.52%)
    18. (0.00000) RY*(12)Na   1           s(  0.00%)p 0.00(  0.00%)d 1.00(100.00%)
    19. (0.00000) RY*(13)Na   1           s(  0.00%)p 1.00( 99.54%)d 0.00(  0.46%)
    20. (0.00002) RY*( 1) H   2           s(100.00%)
    21. (0.00184) BD*( 1)Na   1 - H   2
                ( 79.27%)   0.8903*Na   1 s( 95.47%)p 0.05(  4.52%)d 0.00(  0.01%)
                                           -0.0000  0.0000  0.9771  0.0002 -0.0001
                                            0.0000  0.0000  0.0000  0.0000  0.0000
                                            0.0000 -0.0000 -0.2127  0.0000  0.0000
                                            0.0000  0.0000  0.0000  0.0111
                ( 20.73%)  -0.4554* H   2 s(100.00%)
                                            1.0000 -0.0000


 NHO Directionality and "Bond Bending" (deviations from line of nuclear centers)

         [Thresholds for printing:  angular deviation  >  1.0 degree]
                                    hybrid p-character > 25.0%
                                    orbital occupancy  >  0.10e

                                Line of Centers        Hybrid 1              Hybrid 2
                                ---------------  -------------------   ------------------
                NBO               Theta   Phi    Theta   Phi    Dev    Theta   Phi    Dev
 ========================================================================================
    None exceeding thresholds


 Second Order Perturbation Theory Analysis of Fock Matrix in NBO Basis

     Threshold for printing:   0.50 kcal/mol
                                                                              E(2)  E(j)-E(i) F(i,j)
         Donor NBO (i)                     Acceptor NBO (j)                 kcal/mol   a.u.    a.u.
 ===================================================================================================

 within unit  1
   6. CR (   5)Na   1                / 21. BD*(   1)Na   1 - H   2            1.26    1.11    0.033


 Natural Bond Orbitals (Summary):

                                                            Principal Delocalizations
           NBO                        Occupancy    Energy   (geminal,vicinal,remote)
 ====================================================================================
 Molecular unit  1  (HNa)
     1. BD (   1)Na   1 - H   2          2.00000    -0.17693
     2. CR (   1)Na   1                  2.00000   -38.15753
     3. CR (   2)Na   1                  1.99992    -2.40183
     4. CR (   3)Na   1                  1.99996    -1.11324
     5. CR (   4)Na   1                  1.99996    -1.11324
     6. CR (   5)Na   1                  1.99810    -1.10733  21(g)
     7. RY*(   1)Na   1                  0.00009     0.15556
     8. RY*(   2)Na   1                  0.00004     0.32057
     9. RY*(   3)Na   1                  0.00004     0.32057
    10. RY*(   4)Na   1                  0.00002     0.40427
    11. RY*(   5)Na   1                  0.00000     0.02572
    12. RY*(   6)Na   1                  0.00000     0.12621
    13. RY*(   7)Na   1                  0.00000     0.16463
    14. RY*(   8)Na   1                  0.00000     0.14671
    15. RY*(   9)Na   1                  0.00000     0.35940
    16. RY*(  10)Na   1                  0.00000     0.45158
    17. RY*(  11)Na   1                  0.00000     0.02572
    18. RY*(  12)Na   1                  0.00000     0.35941
    19. RY*(  13)Na   1                  0.00000     0.12621
    20. RY*(   1) H   2                  0.00002     0.94406
    21. BD*(   1)Na   1 - H   2          0.00184     0.00442
       -------------------------------
              Total Lewis   11.99794  ( 99.9828%)
        Valence non-Lewis    0.00184  (  0.0153%)
        Rydberg non-Lewis    0.00022  (  0.0018%)
       -------------------------------
            Total unit  1   12.00000  (100.0000%)
           Charge unit  1    0.00000
 1\1\ WCSS.PL-BEM-NODE1\SP\RTPSSh\6-31G(d)\H1Na1\LCHENG\22-Dec-2016\0\\
 # tpssh/6-31G* pop(nboread) symm=loos\\Auh2f\\0,1\Na,0,0.,0.,0.158174\
 H,0,0.,0.,-1.739916\\Version=ES64L-G09RevE.01\State=1-SG\HF=-162.84308
 72\RMSD=1.632e-10\Dipole=0.,0.,2.4630465\Quadrupole=1.6177903,1.617790
 3,-3.2355807,0.,0.,0.\PG=C*V [C*(H1Na1)]\\@


 NO SCIENCE HAS EVER MADE MORE RAPID PROGRESS IN A
 SHORTER TIME THAN CHEMISTRY.
   -- MARTIN HEINRICH KLOPROTH, 1791
 (FIRST PROFESSOR OF CHEMISTRY AT THE UNIVERSITY OF BERLIN)
 Job cpu time:       0 days  0 hours  0 minutes 12.4 seconds.
 File lengths (MBytes):  RWF=      5 Int=      0 D2E=      0 Chk=      1 Scr=      1
 Normal termination of Gaussian 09 at Thu Dec 22 16:27:26 2016.
